16x1x1 (001) layers of simple cubic lattice 
 
16 atoms 
14 bonds 
 
2 atom types 
1 bond types 
 
-1.35 9.45 xlo xhi 
-0.9 0.9 ylo yhi 
-0.0011 0.0011 zlo zhi 
 
Atoms 
 
1 1 1 0.45     0.00000000    0.00000000 
2 1 1 0.9     0.00000000    0.00000000 
3 1 1 1.35     0.00000000    0.00000000 
4 1 1 1.8     0.00000000    0.00000000 
5 1 1 2.25     0.00000000    0.00000000 
6 1 1 2.7     0.00000000    0.00000000 
7 1 1 3.15     0.00000000    0.00000000 
8 1 1 3.6     0.00000000    0.00000000 
9 2 2 4.05     0.00000000    0.00000000 
10 2 2 4.5     0.00000000    0.00000000 
11 2 2 4.95     0.00000000    0.00000000 
12 2 2 5.4     0.00000000    0.00000000 
13 2 2 5.8500000000000005     0.00000000    0.00000000 
14 2 2 6.3     0.00000000    0.00000000 
15 2 2 6.75     0.00000000    0.00000000 
16 2 2 7.2     0.00000000    0.00000000 

Bonds 
 
1 1 1 2 
2 1 2 3 
3 1 3 4 
4 1 4 5 
5 1 5 6 
6 1 6 7 
7 1 7 8 
8 1 9 10 
9 1 10 11 
10 1 11 12 
11 1 12 13 
12 1 13 14 
13 1 14 15 
14 1 15 16 

Bond Coeffs 
 
1 0.5 1.0 
 
Masses 
 
1 1.0 
2 1.0