ITEM: TIMESTEP
0
ITEM: NUMBER OF ATOMS
16
ITEM: BOX BOUNDS ff pp pp
-3.0000000000000000e+00 1.9000000000000000e+01
-1.0000000000000000e+00 1.0000000000000000e+00
-1.0000000000000000e-04 1.0000000000000000e-04
ITEM: ATOMS id type xs ys zs
1 1 0.136364 0.5 0.5
2 1 0.181818 0.5 0.5
3 1 0.227273 0.5 0.5
4 1 0.272727 0.5 0.5
5 1 0.318182 0.5 0.5
6 1 0.363636 0.5 0.5
7 1 0.409091 0.5 0.5
8 1 0.454545 0.5 0.5
9 2 0.590909 0.5 0.5
10 2 0.636364 0.5 0.5
11 2 0.681818 0.5 0.5
12 2 0.727273 0.5 0.5
13 2 0.772727 0.5 0.5
14 2 0.818182 0.5 0.5
15 2 0.863636 0.5 0.5
16 2 0.909091 0.5 0.5
